 Gaussian 16, Revision A.03,
 Gaussian 16:  ES64L-G16RevA.03 25-Dec-2016

 -----------------------------------------------------
 # freq=hpmodes b3lyp/6-31g(d) empiricaldispersion=gd3
 -----------------------------------------------------

 -------------------
 Title Card Required
 -------------------
 Symbolic Z-matrix:
 Charge = -1 Multiplicity = 1

                         Standard orientation:
 ---------------------------------------------------------------------
 Center     Atomic      Atomic             Coordinates (Angstroms)
 Number     Number       Type             X           Y           Z
 ---------------------------------------------------------------------
      1          6           0       -0.000017    0.000025   -0.000069
      2          1           0       -0.940894    0.519399    0.002260
      3          1           0        0.920263    0.555210    0.002388
      4          1           0        0.020697   -1.074540   -0.005114
      5         17           0        0.000051   -0.010900    2.374188
      6         17           0       -0.000049    0.010887   -2.374136
 ---------------------------------------------------------------------

 SCF Done:  E(RB3LYP) =  -960.373279062     A.U. after   12 cycles

 The electronic state is 1-A.
 Alpha  occ. eigenvalues -- -101.29832-101.29830 -10.09409  -9.21213  -9.21210
 Alpha  occ. eigenvalues --   -6.97265  -6.97262  -6.96845  -6.96845  -6.96843
 Alpha  occ. eigenvalues --   -6.96843  -0.58664  -0.55484  -0.50815  -0.29117
 Alpha  occ. eigenvalues --   -0.29115  -0.15643  -0.09125  -0.09125  -0.08485
 Alpha  occ. eigenvalues --   -0.08484  -0.07613
 Alpha virt. eigenvalues --    0.13111   0.25217   0.31932   0.31933   0.57069
 Alpha virt. eigenvalues --    0.57539   0.63573   0.63574   0.64478   0.64479
 Alpha virt. eigenvalues --    0.69260   0.72607   0.72607   0.73971   0.88121

 Mulliken charges:
               1
     1  C   -0.361155
     2  H    0.218180
     3  H    0.218167
     4  H    0.218172
     5  Cl  -0.646718
     6  Cl  -0.646646
 Sum of Mulliken charges =  -1.00000

 Dipole moment (field-independent basis, Debye):
    X=              0.0000    Y=              0.0001    Z=             -0.0011  Tot=              0.0011
 Quadrupole moment (field-independent basis, Debye-Ang):
   XX=            -35.4421   YY=            -35.4428   ZZ=            -72.9987
   XY=             -0.0001   XZ=             -0.0008   YZ=              0.1724

  Exact polarizability:  22.443   0.000  22.444   0.002  -0.359 100.599
 Approx polarizability:  28.808   0.000  28.812   0.003  -0.579 155.059

 ******    1 imaginary frequencies (negative Signs) ******

                      1                      2                      3
                      A                      A                      A
 Frequencies --   -325.1380               194.4991               194.5501
 Red. masses --     13.2306                 4.3440                 4.3441
 Frc consts  --      0.8241                 0.0968                 0.0969
 IR Inten    --    945.6754                14.8137                14.8139

                      4                      5                      6
                      A                      A                      A
 Frequencies --    209.4751               936.1447               936.3160
 Red. masses --     34.9656                 1.0122                 1.0122
 Frc consts  --      0.9040                 0.5226                 0.5228
 IR Inten    --      0.0000                 0.0001                 0.0000

                      7                      8                      9
                      A                      A                      A
 Frequencies --   1041.2127              1423.6733              1423.8223
 Red. masses --      1.0439                 1.1044                 1.1044
 Frc consts  --      0.6668                 1.3189                 1.3191
 IR Inten    --     92.5128                 5.0217                 5.0230

                     10                     11                     12
                      A                      A                      A
 Frequencies --   3224.8448              3420.9210              3421.3958
 Red. masses --      1.0078                 1.1234                 1.1235
 Frc consts  --      6.1752                 7.7462                 7.7484
 IR Inten    --      0.0000                 0.4845                 0.4862

 - Thermochemistry -
 -------------------
 Temperature   298.150 Kelvin.  Pressure   1.00000 Atm.
 Atom     1 has atomic number  6 and mass  12.00000

 Molecular mass:    84.96118 amu.
 Principal axes and moments of inertia in atomic units:
                           1         2         3
     Eigenvalues --    12.471651414.029131414.02954
           X            0.00002  -0.00003   1.00000
           Y           -0.00459   0.99999   0.00003
           Z            0.99999   0.00459  -0.00002
 This molecule is an asymmetric top.
 Rotational symmetry number  1.
 Rotational temperatures (Kelvin)      6.94487     0.06125     0.06125
 Rotational constants (GHZ):         144.70752     1.27631     1.27631
    1 imaginary frequencies ignored.
 Zero-point vibrational energy      98254.4 (Joules/Mol)
                                   23.48337 (Kcal/Mol)
 Warning -- explicit consideration of   3 degrees of freedom as
           vibrations may cause significant error
 Vibrational temperatures:    279.84   279.91   301.39  1346.90  1347.15
          (Kelvin)           1498.07  2048.35  2048.56  4639.83  4921.94
                             4922.63

 Zero-point correction=                           0.037423 (Hartree/Particle)
 Thermal correction to Energy=                    0.042079
 Thermal correction to Enthalpy=                  0.043024
 Thermal correction to Gibbs Free Energy=         0.009418
 Sum of electronic and zero-point Energies=           -960.335856
 Sum of electronic and thermal Energies=              -960.331200
 Sum of electronic and thermal Enthalpies=            -960.330255
 Sum of electronic and thermal Free Energies=         -960.363861

                     E (Thermal)             CV                S
                      KCal/Mol        Cal/Mol-Kelvin    Cal/Mol-Kelvin
 Total                   26.405             12.917             70.728
 Electronic               0.000              0.000              0.000
 Translational            0.889              2.981             39.232
 Rotational               0.889              2.981             24.726
 Vibrational             24.628              6.956              6.770
 Vibration     1          0.635              1.848              2.185
 Vibration     2          0.635              1.847              2.184
 Vibration     3          0.642              1.826              2.048

 Optimization completed.
    -- Stationary point found.
 Normal termination of Gaussian 16 at Tue Oct 15 19:41:44 2019.
