 Gaussian 16, Revision A.03,
 Gaussian 16:  ES64L-G16RevA.03 25-Dec-2016

 ------------------------------------------------------
 # freq=hpmodes b3lyp/6-31g(d) scrf=(smd,solvent=water)
 ------------------------------------------------------

 -------------------
 Title Card Required
 -------------------
 Symbolic Z-matrix:
 Charge =  0 Multiplicity = 1

                         Standard orientation:
 ---------------------------------------------------------------------
 Center     Atomic      Atomic             Coordinates (Angstroms)
 Number     Number       Type             X           Y           Z
 ---------------------------------------------------------------------
      1          6           0       -0.357630    0.738765    0.001320
      2          6           0       -0.361166   -0.736931    0.001177
      3          6           0       -0.358367   -1.532504    1.262641
      4          1           0       -0.630414   -0.974470    2.154716
      5          1           0        0.664276   -1.914185    1.401208
      6          1           0       -1.005978   -2.404008    1.151890
      7          6           0       -0.356145   -1.529885   -1.261693
      8          1           0       -1.000485   -2.403909   -1.152719
      9          1           0        0.667962   -1.907083   -1.401840
     10          1           0       -0.630964   -0.970985   -2.152341
     11          6           0       -0.360295    1.531850   -1.261496
     12          1           0        0.665629    1.899942   -1.413690
     13          1           0       -0.994999    2.411669   -1.144630
     14          1           0       -0.649442    0.975949   -2.149588
     15          6           0       -0.362445    1.533026    1.263597
     16          1           0        0.661460    1.906813    1.414998
     17          1           0       -0.647597    0.974629    2.151337
     18          1           0       -1.002785    2.409161    1.147997
     19         35           0        3.311573    0.000165   -0.000205
     20         35           0       -2.830441   -0.001006   -0.000956
 ---------------------------------------------------------------------

 SCF Done:  E(RB3LYP) =  -5379.23325112     A.U. after   17 cycles

 The electronic state is 1-A.
 Alpha  occ. eigenvalues -- -482.90344-482.80184 -61.86465 -61.76398 -56.38490
 Alpha  occ. eigenvalues --  -56.38136 -56.38109 -56.28370 -56.28223 -56.28216
 Alpha  occ. eigenvalues --  -10.30587 -10.30551 -10.19784 -10.19778 -10.19776
 Alpha  occ. eigenvalues --  -10.19767  -8.57395  -8.47452  -6.52692  -6.51554
 Alpha  occ. eigenvalues --   -6.51471  -6.42354  -6.41852  -6.41838  -2.64244
 Alpha  occ. eigenvalues --   -2.63963  -2.63897  -2.62993  -2.62992  -2.53997
 Alpha  occ. eigenvalues --   -2.53868  -2.53857  -2.53459  -2.53459  -0.87957
 Alpha  occ. eigenvalues --   -0.79673  -0.73314  -0.73210  -0.70283  -0.65532
 Alpha  occ. eigenvalues --   -0.63891  -0.52838  -0.50294  -0.47285  -0.47011
 Alpha  occ. eigenvalues --   -0.44491  -0.41339  -0.41241  -0.40186  -0.39715
 Alpha  occ. eigenvalues --   -0.39586  -0.38476  -0.36588  -0.31886  -0.28326
 Alpha  occ. eigenvalues --   -0.28080  -0.21050  -0.20487  -0.20438
 Alpha virt. eigenvalues --   -0.15723  -0.04637   0.08553   0.11335   0.11447
 Alpha virt. eigenvalues --    0.13444   0.14592   0.14671   0.16423   0.16739
 Alpha virt. eigenvalues --    0.17198   0.19701   0.20436   0.20807   0.20876

 Mulliken charges:
               1
     1  C    0.169431
     2  C    0.166121
     3  C   -0.504581
     4  H    0.210473
     5  H    0.227668
     6  H    0.214975
     7  C   -0.504485
     8  H    0.214807
     9  H    0.227678
    10  H    0.210400
    11  C   -0.505470
    12  H    0.227868
    13  H    0.214893
    14  H    0.210980
    15  C   -0.505426
    16  H    0.227852
    17  H    0.210794
    18  H    0.215093
    19  Br  -0.699715
    20  Br  -0.229356
 Sum of Mulliken charges =  -0.00000

 Dipole moment (field-independent basis, Debye):
    X=             -8.8008    Y=              0.0090    Z=              0.0055  Tot=              8.8008
 Quadrupole moment (field-independent basis, Debye-Ang):
   XX=           -116.8591   YY=            -64.7405   ZZ=            -69.7214
   XY=             -0.0223   XZ=             -0.0069   YZ=             -0.0002

  Exact polarizability: 392.106  -0.234 136.384  -0.014   0.001 113.966
 Approx polarizability: 912.140  -0.706 147.773   0.018   0.000 124.981

 ******    3 imaginary frequencies (negative Signs) ******

                      1                      2                      3
                      A                      A                      A
 Frequencies --   -120.1198               -84.7552               -57.4194
 Red. masses --      1.0398                 3.6179                11.4014
 Frc consts  --      0.0088                 0.0153                 0.0221
 IR Inten    --      0.0207                19.6810               136.8039

                      4                      5                      6
                      A                      A                      A
 Frequencies --     18.2849                40.4307                58.5066
 Red. masses --      3.3941                 1.9943                 1.6453
 Frc consts  --      0.0007                 0.0019                 0.0033
 IR Inten    --     28.1171                 3.7686                11.1832

                      7                      8                      9
                      A                      A                      A
 Frequencies --     87.4024               132.7718               148.9943
 Red. masses --      5.5905                 2.3018                 1.3378
 Frc consts  --      0.0252                 0.0239                 0.0175
 IR Inten    --    234.7392                 0.0229                 3.4855

                     10                     11                     12
                      A                      A                      A
 Frequencies --    156.0769               181.8439               350.6613
 Red. masses --      1.3003                 2.7643                 2.0398
 Frc consts  --      0.0187                 0.0539                 0.1478
 IR Inten    --      5.0738                 2.9151               221.0225

                     13                     14                     15
                      A                      A                      A
 Frequencies --    353.8910               364.4075               448.0467
 Red. masses --      2.7593                 2.2452                 2.4510
 Frc consts  --      0.2036                 0.1757                 0.2899
 IR Inten    --      2.1444                 7.6314                 0.9027

                     16                     17                     18
                      A                      A                      A
 Frequencies --    470.1604               476.8327               686.8721
 Red. masses --      3.1474                 2.2914                 3.4197
 Frc consts  --      0.4099                 0.3070                 0.9506
 IR Inten    --      0.0001                 0.0018                15.0747

                     19                     20                     21
                      A                      A                      A
 Frequencies --    888.6808               911.3166               913.3135
 Red. masses --      2.5046                 1.3046                 1.3185
 Frc consts  --      1.1654                 0.6384                 0.6480
 IR Inten    --     33.3062                 7.6072                 2.1372

                     22                     23                     24
                      A                      A                      A
 Frequencies --    999.1296              1015.5477              1038.8767
 Red. masses --      1.3507                 1.3022                 1.5691
 Frc consts  --      0.7944                 0.7913                 0.9978
 IR Inten    --      0.0014                 0.4930                 1.5999

                     25                     26                     27
                      A                      A                      A
 Frequencies --   1058.4254              1083.5832              1205.6815
 Red. masses --      1.6078                 1.5294                 1.9220
 Frc consts  --      1.0612                 1.0580                 1.6462
 IR Inten    --     45.9347                47.3319               141.3247

                     28                     29                     30
                      A                      A                      A
 Frequencies --   1222.1933              1326.4488              1364.1982
 Red. masses --      3.6347                 2.5905                 2.8702
 Frc consts  --      3.1989                 2.6854                 3.1471
 IR Inten    --     63.2013                 0.0081                86.0286

                     31                     32                     33
                      A                      A                      A
 Frequencies --   1405.4906              1406.5654              1416.0851
 Red. masses --      1.1547                 1.2518                 1.1692
 Frc consts  --      1.3439                 1.4592                 1.3814
 IR Inten    --     89.2577                13.3023                97.6535

                     34                     35                     36
                      A                      A                      A
 Frequencies --   1426.5508              1453.4353              1467.3746
 Red. masses --      1.1512                 1.0404                 1.0411
 Frc consts  --      1.3804                 1.2949                 1.3207
 IR Inten    --     44.5907                 0.0020                18.8795

                     37                     38                     39
                      A                      A                      A
 Frequencies --   1475.8003              1480.8708              1502.6284
 Red. masses --      1.2283                 1.0567                 1.0846
 Frc consts  --      1.5761                 1.3653                 1.4429
 IR Inten    --      0.0047                46.2282                 0.4470

                     40                     41                     42
                      A                      A                      A
 Frequencies --   1504.8211              1518.1227              1552.8291
 Red. masses --      1.1008                 1.1117                 1.1580
 Frc consts  --      1.4687                 1.5096                 1.6451
 IR Inten    --      0.0481                32.4599                37.1372

                     43                     44                     45
                      A                      A                      A
 Frequencies --   3045.6809              3047.9236              3051.2936
 Red. masses --      1.0535                 1.0546                 1.0555
 Frc consts  --      5.7578                 5.7720                 5.7898
 IR Inten    --      2.5927                 8.6864                 6.7549

                     46                     47                     48
                      A                      A                      A
 Frequencies --   3054.8669              3135.1112              3138.2617
 Red. masses --      1.0572                 1.0824                 1.0835
 Frc consts  --      5.8131                 6.2683                 6.2873
 IR Inten    --      9.4463                 0.0038                 0.8370

                     49                     50                     51
                      A                      A                      A
 Frequencies --   3146.3455              3150.7895              3205.2752
 Red. masses --      1.0791                 1.0801                 1.1047
 Frc consts  --      6.2942                 6.3179                 6.6868
 IR Inten    --      3.0287                 5.6298                 0.0014

                     52                     53                     54
                      A                      A                      A
 Frequencies --   3207.7753              3225.7628              3227.1414
 Red. masses --      1.1069                 1.0968                 1.0991
 Frc consts  --      6.7108                 6.7239                 6.7440
 IR Inten    --      2.3564                18.0688                 0.9207

 - Thermochemistry -
 -------------------
 Temperature   298.150 Kelvin.  Pressure   1.00000 Atm.
 Atom     1 has atomic number  6 and mass  12.00000

 Molecular mass:   241.93057 amu.
 Principal axes and moments of inertia in atomic units:
                           1         2         3
     Eigenvalues --   985.674665794.676426005.60179
           X            1.00000  -0.00006  -0.00003
           Y            0.00006   1.00000  -0.00001
           Z            0.00003   0.00001   1.00000
 This molecule is an asymmetric top.
 Rotational symmetry number  1.
 Warning -- assumption of classical behavior for rotation
           may cause significant error
 Rotational temperatures (Kelvin)      0.08787     0.01495     0.01442
 Rotational constants (GHZ):           1.83097     0.31145     0.30051
    3 imaginary frequencies ignored.
 Zero-point vibrational energy     432147.3 (Joules/Mol)
                                  103.28567 (Kcal/Mol)
 Warning -- explicit consideration of  14 degrees of freedom as
           vibrations may cause significant error
 Vibrational temperatures:     26.31    58.17    84.18   125.75   191.03
          (Kelvin)            214.37   224.56   261.63   504.52   509.17
                              524.30   644.64   676.46   686.06   988.26
                             1278.61  1311.18  1314.05  1437.52  1461.15
                             1494.71  1522.84  1559.03  1734.71  1758.46
                             1908.46  1962.78  2022.19  2023.73  2037.43
                             2052.49  2091.17  2111.22  2123.35  2130.64
                             2161.95  2165.10  2184.24  2234.17  4382.06
                             4385.28  4390.13  4395.27  4510.73  4515.26
                             4526.89  4533.28  4611.68  4615.27  4641.15
                             4643.14

 Zero-point correction=                           0.164596 (Hartree/Particle)
 Thermal correction to Energy=                    0.175678
 Thermal correction to Enthalpy=                  0.176622
 Thermal correction to Gibbs Free Energy=         0.123347
 Sum of electronic and zero-point Energies=          -5379.068655
 Sum of electronic and thermal Energies=             -5379.057573
 Sum of electronic and thermal Enthalpies=           -5379.056629
 Sum of electronic and thermal Free Energies=        -5379.109904

                     E (Thermal)             CV                S
                      KCal/Mol        Cal/Mol-Kelvin    Cal/Mol-Kelvin
 Total                  110.240             35.806            112.126
 Electronic               0.000              0.000              0.000
 Translational            0.889              2.981             42.351
 Rotational               0.889              2.981             31.906
 Vibrational            108.462             29.844             37.869
 Vibration     1          0.593              1.986              6.812
 Vibration     2          0.594              1.981              5.238
 Vibration     3          0.596              1.974              4.507
 Vibration     4          0.601              1.958              3.717
 Vibration     5          0.613              1.921              2.905
 Vibration     6          0.618              1.904              2.685
 Vibration     7          0.620              1.896              2.597
 Vibration     8          0.630              1.864              2.309
 Vibration     9          0.728              1.574              1.163
 Vibration    10          0.730              1.567              1.149
 Vibration    11          0.738              1.546              1.103
 Vibration    12          0.807              1.365              0.802
 Vibration    13          0.827              1.316              0.737
 Vibration    14          0.833              1.301              0.719

 Normal termination of Gaussian 16 at Sat Oct 26 18:26:32 2019.
