 Gaussian 16, Revision A.03,
 Gaussian 16:  ES64L-G16RevA.03 25-Dec-2016

 -----------------------------------------------------------------
 # b3lyp/6-31G(d) force scf=(tight,nosym) scrf=(smd,solvent=water)
 -----------------------------------------------------------------

 --------------------------------
 1 2 3 4 runpoint 1 runisomer 453
 --------------------------------
 Symbolic Z-matrix:
 Charge =  0 Multiplicity = 1

                         Standard orientation:
 ---------------------------------------------------------------------
 Center     Atomic      Atomic             Coordinates (Angstroms)
 Number     Number       Type             X           Y           Z
 ---------------------------------------------------------------------
      1          6           0        0.449344    0.954163    0.106564
      2          6           0        0.408662   -0.550768    0.002246
      3          6           0        0.128729   -1.144868   -1.356223
      4          1           0        1.190794   -0.758393   -1.986729
      5          1           0       -1.190388   -0.546830   -1.807299
      6          1           0       -0.080094   -2.519430   -1.275868
      7          6           0        0.246647   -1.415261    1.211718
      8          1           0        0.651959   -2.437237    0.963234
      9          1           0       -0.764659   -1.727369    1.342060
     10          1           0        0.673365   -0.994618    2.048345
     11          6           0        0.662909    1.567150    1.423730
     12          1           0       -0.086521    2.629604    1.346278
     13          1           0        1.969202    1.891241    1.574008
     14          1           0        0.309607    0.820777    2.459387
     15          6           0        0.665765    1.823806   -1.123560
     16          1           0       -0.346652    2.439692   -1.373678
     17          1           0        0.959824    1.306861   -1.991210
     18          1           0        1.422961    2.674925   -1.022555
     19         35           0       -3.282191   -0.042183   -0.005289
     20         35           0        2.708427   -0.248804   -0.047935
 ---------------------------------------------------------------------

 SCF Done:  E(RB3LYP) =  -5379.02318157     A.U. after   17 cycles

 The electronic state is 1-A.
 Alpha  occ. eigenvalues -- -482.91618-482.79478 -61.87753 -61.75689 -56.39749
 Alpha  occ. eigenvalues --  -56.39384 -56.39362 -56.27630 -56.27532 -56.27514
 Alpha  occ. eigenvalues --  -10.31837 -10.30627 -10.25741 -10.25688 -10.21670
 Alpha  occ. eigenvalues --  -10.18986  -8.58699  -8.46738  -6.54006  -6.52825
 Alpha  occ. eigenvalues --   -6.52759  -6.41542  -6.41207  -6.41149  -2.65558
 Alpha  occ. eigenvalues --   -2.65260  -2.65208  -2.64268  -2.64267  -2.53207
 Alpha  occ. eigenvalues --   -2.53133  -2.53087  -2.52821  -2.52819  -0.88135
 Alpha  occ. eigenvalues --   -0.78531  -0.74633  -0.71474  -0.68766  -0.63322
 Alpha  occ. eigenvalues --   -0.61749  -0.51567  -0.48826  -0.45779  -0.44986
 Alpha  occ. eigenvalues --   -0.43505  -0.41189  -0.40076  -0.38923  -0.37358
 Alpha  occ. eigenvalues --   -0.36410  -0.35901  -0.33097  -0.31385  -0.29228
 Alpha  occ. eigenvalues --   -0.28516  -0.20335  -0.19986  -0.19896
 Alpha virt. eigenvalues --   -0.15069  -0.06536   0.02567   0.05082   0.05632
 Alpha virt. eigenvalues --    0.07867   0.09671   0.09840   0.11099   0.13626
 Alpha virt. eigenvalues --    0.14977   0.16492   0.19479   0.20191   0.20967

 Mulliken charges:
               1
     1  C    0.293550
     2  C    0.115228
     3  C   -0.419653
     4  H    0.171982
     5  H    0.149819
     6  H    0.154056
     7  C   -0.481990
     8  H    0.201629
     9  H    0.232217
    10  H    0.201695
    11  C   -0.487241
    12  H    0.201287
    13  H    0.216164
    14  H    0.191998
    15  C   -0.513252
    16  H    0.217804
    17  H    0.221158
    18  H    0.225253
    19  Br  -0.722680
    20  Br  -0.169025
 Sum of Mulliken charges =  -0.00000

 Dipole moment (field-independent basis, Debye):
    X=             10.7224    Y=              2.4471    Z=              0.7920  Tot=             11.0266
 Quadrupole moment (field-independent basis, Debye-Ang):
   XX=           -114.5259   YY=            -64.8158   ZZ=            -71.8843
   XY=              3.1144   XZ=              0.5786   YZ=             -1.7699

 Normal termination of Gaussian 16 at Thu Oct 31 11:17:32 2019.
