 Gaussian 16, Revision A.03,
 Gaussian 16:  ES64L-G16RevA.03 25-Dec-2016

 -----------------------------------------------------------------
 # b3lyp/6-31G(d) force scf=(tight,nosym) scrf=(smd,solvent=water)
 -----------------------------------------------------------------

 --------------------------------
 1 2 3 4 runpoint 1 runisomer 460
 --------------------------------
 Symbolic Z-matrix:
 Charge =  0 Multiplicity = 1

                         Standard orientation:
 ---------------------------------------------------------------------
 Center     Atomic      Atomic             Coordinates (Angstroms)
 Number     Number       Type             X           Y           Z
 ---------------------------------------------------------------------
      1          6           0       -0.501854    0.840963    0.098128
      2          6           0       -0.456064   -0.672202    0.044071
      3          6           0       -0.528487   -1.548896    1.222762
      4          1           0       -1.241851   -1.092069    2.084973
      5          1           0        0.706455   -1.476972    1.659980
      6          1           0       -0.794303   -2.667609    0.989740
      7          6           0       -0.200839   -1.413949   -1.291139
      8          1           0       -1.060009   -2.041277   -1.358098
      9          1           0        0.800754   -1.944239   -1.199083
     10          1           0       -0.062956   -0.665388   -2.302191
     11          6           0       -0.349323    1.626411   -1.189207
     12          1           0        0.643345    2.279880   -1.094651
     13          1           0       -1.247410    2.325554   -1.308732
     14          1           0       -0.226840    0.946889   -2.067212
     15          6           0       -0.469320    1.462792    1.376919
     16          1           0        0.628952    1.425827    1.918876
     17          1           0       -1.358070    0.869816    2.090796
     18          1           0       -0.657868    2.611078    1.218596
     19         35           0        3.277812   -0.020119    0.003366
     20         35           0       -2.737666   -0.046801   -0.066286
 ---------------------------------------------------------------------

 SCF Done:  E(RB3LYP) =  -5379.13826435     A.U. after   18 cycles

 The electronic state is 1-A.
 Alpha  occ. eigenvalues -- -482.92278-482.77721 -61.88422 -61.73935 -56.40419
 Alpha  occ. eigenvalues --  -56.40082 -56.40033 -56.25863 -56.25780 -56.25777
 Alpha  occ. eigenvalues --  -10.31317 -10.31285 -10.23692 -10.23147 -10.21738
 Alpha  occ. eigenvalues --  -10.21719  -8.59389  -8.44978  -6.54671  -6.53580
 Alpha  occ. eigenvalues --   -6.53419  -6.39725  -6.39456  -6.39448  -2.66235
 Alpha  occ. eigenvalues --   -2.65981  -2.65853  -2.64984  -2.64980  -2.51401
 Alpha  occ. eigenvalues --   -2.51332  -2.51326  -2.51112  -2.51112  -0.88872
 Alpha  occ. eigenvalues --   -0.79318  -0.75250  -0.72324  -0.68555  -0.63558
 Alpha  occ. eigenvalues --   -0.61728  -0.51097  -0.49242  -0.47398  -0.46431
 Alpha  occ. eigenvalues --   -0.43954  -0.41193  -0.40411  -0.40048  -0.38647
 Alpha  occ. eigenvalues --   -0.38195  -0.36933  -0.34333  -0.32562  -0.29941
 Alpha  occ. eigenvalues --   -0.29382  -0.19020  -0.18631  -0.18603
 Alpha virt. eigenvalues --   -0.13652  -0.06367   0.04704   0.07594   0.08712
 Alpha virt. eigenvalues --    0.10063   0.10342   0.11694   0.12133   0.14811
 Alpha virt. eigenvalues --    0.15138   0.16969   0.18856   0.19208   0.20536

 Mulliken charges:
               1
     1  C    0.221653
     2  C    0.184813
     3  C   -0.481494
     4  H    0.196463
     5  H    0.198040
     6  H    0.222584
     7  C   -0.473016
     8  H    0.214146
     9  H    0.224746
    10  H    0.179759
    11  C   -0.485750
    12  H    0.216805
    13  H    0.216306
    14  H    0.198040
    15  C   -0.504393
    16  H    0.239433
    17  H    0.187193
    18  H    0.208061
    19  Br  -0.813731
    20  Br  -0.149656
 Sum of Mulliken charges =  -0.00000

 Dipole moment (field-independent basis, Debye):
    X=            -11.8447    Y=              0.5623    Z=              0.7422  Tot=             11.8813
 Quadrupole moment (field-independent basis, Debye-Ang):
   XX=           -118.7345   YY=            -65.6706   ZZ=            -70.4033
   XY=              0.6147   XZ=             -0.9431   YZ=             -0.3638

 Normal termination of Gaussian 16 at Thu Oct 31 04:19:53 2019.
